(written by ASE)

12 atoms
2 atom types

0.0      7.0258677341673872  xlo xhi
0.0      6.0845799410665515  ylo yhi
0.0      7.8158157014320908  zlo zhi
    -3.5129338670836936                       0                       0  xy xz yz

Masses

     1      95.949999975317411 # Mo
     2      127.59999996717562 # Te

Atoms # atomic

     1   1                       0                       0              3.90790785
     2   2      1.7564677799999999              1.01409715              5.71997994
     3   2      1.7564677799999999              1.01409715      2.0958357599999999
     4   1              -1.7560315      3.0425413699999999              3.90790785
     5   2                       0      4.0563866199999996      5.7198116600000004
     6   2                       0      4.0563866199999996              2.09600404
     7   1      3.5129338699999999 -0.00050279999999999997              3.90790785
     8   2      5.2693999500000004              1.01409715              5.71997994
     9   2      5.2693999500000004              1.01409715      2.0958357599999999
    10   1               1.7560315      3.0425413699999999              3.90790785
    11   2      3.5129338699999999      4.0563856400000002              5.71997994
    12   2      3.5129338699999999      4.0563856400000002      2.0958357599999999
