24
Lattice="6.574336738330112 0.0 0.0 -3.3447106147358725 5.793208721425381 0.0 0.0 0.0 13.58916206855556" Properties=species:S:1:pos:R:3:magmoms:R:1:forces:R:3 timestep=20020 pbc="T T T" free_energy=-156.24465595860102 energy=-156.24336053929795 dipole="43.50773082271756 -12.834198071374006 -3.82780018335123" magmom=0.0 stress="-0.025617454729308372 0.00663794833915526 0.014312685326151119 0.00663794833915526 -0.012576501546049994 0.007657164123562657 0.014312685326151119 0.007657164123562657 -0.012784264587464686"
Mo      -1.16971000       1.33092000       3.16219000       0.00000000      -0.28067214       0.35256655      -0.13489743
Se       0.74566100       2.49972000       4.91790000       0.00000000      -0.04174240      -0.18194889      -1.37143123
Se      -0.83741800       3.29136000       1.54895000       0.00000000      -0.64183447       0.27723543      -0.06605555
Mo      -2.45557000       4.17261000       3.28907000       0.00000000      -0.97312790      -0.00369187      -2.64127673
Se      -1.01369000       5.44665000       4.84362000       0.00000000       0.85740993       0.21999570       0.40036458
Se      -2.65714000       6.24185000       1.63064000       0.00000000       0.17608150       0.18988236       0.40430050
Mo       2.62470000       1.57164000       3.11823000       0.00000000      -0.21868315      -0.28187959       1.27694189
Se       4.13500000       2.49390000       4.96795000       0.00000000      -0.47271246      -1.13801685       1.30217186
Se       2.25571000       3.41194000       1.49591000       0.00000000       0.77752480       0.46067430       0.32508491
Mo       0.68146800       4.54089000       3.19093000       0.00000000       0.44784347       0.59330650       0.51658238
Se       2.46734000       5.35750000       4.91304000       0.00000000      -0.89363647      -0.01835751      -0.25796111
Se       0.44230300       6.33305000       1.26250000       0.00000000       1.28616068      -0.48056977       0.44652867
Mo       0.57693700      -1.56909000      10.21960000       0.00000000      -0.39779509       0.13768182      -1.45259099
Se       2.59062000      -0.75571100      11.52920000       0.00000000      -0.41169340       0.94956104       1.09610652
Se       1.03548000       0.20704100       8.28860000       0.00000000      -0.93098353       0.63526113       0.97276019
Mo      -0.49364400       1.38233000      10.11690000       0.00000000      -0.12456426      -0.60816919       0.00899228
Se       0.89194000       2.29825000      11.96000000       0.00000000      -0.58056184      -0.67886585       2.48274086
Se      -0.98825700       3.21443000       8.49492000       0.00000000       1.06946537      -0.22176089       0.30489187
Mo       4.36561000      -1.93936000      10.19490000       0.00000000      -0.46287728       1.81376089      -0.10892591
Se       5.80361000      -0.44434800      12.00870000       0.00000000      -0.31311070      -0.71639203      -0.94364465
Se       4.13307000       0.22301000       8.90308000       0.00000000       0.10781103       0.67985572      -1.15313315
Mo       2.19442000       1.41256000      10.15700000       0.00000000       1.20151367      -0.21931285      -1.73946535
Se       4.11548000       2.31526000      11.69450000       0.00000000       0.18170018      -0.63166722       0.47696029
Se       2.40177000       3.34567000       8.29631000       0.00000000       0.63706154      -1.12793547      -0.14317479
