12
Lattice="6.646413241865501 0.0 0.0 -3.480814254126612 6.028947139948852 0.0 0.0 0.0 6.312855525445542" Properties=species:S:1:pos:R:3:magmoms:R:1:forces:R:3 timestep=20040 pbc="T T T" free_energy=-78.38996362463925 energy=-78.38927004039417 dipole="12.46219870914951 -44.491446282503375 3.411842706756879" magmom=0.0 stress="-0.011223217508654558 -0.01611256711699899 -0.01262018292598213 -0.01611256711699899 -0.015177629021782909 -0.0025931451741123277 -0.01262018292598213 -0.0025931451741123277 -0.020794511781584573"
Mo       0.03762990       0.26812700       3.44410000       0.00000000      -1.33829562      -0.99955409      -0.42332830
Se       1.70335000       0.69376500       5.20035000       0.00000000      -0.38037711       0.20783853       0.18915160
Se      -0.02793350       2.06703000       1.66523000       0.00000000      -0.92702809      -1.03822219      -2.08562170
Mo      -1.88081000       2.41610000       3.23498000       0.00000000       0.61211230       0.57330174       1.58954165
Se      -0.18207800       3.92626000       4.63237000       0.00000000      -0.37386534      -0.34079588       0.43001602
Se      -1.93481000       4.63213000       1.84086000       0.00000000       0.15367858       1.35116097       0.64267786
Mo       3.25250000       0.19677700       3.32545000       0.00000000       0.00278907      -1.06206580       0.47295406
Se       4.89449000       0.63539000       5.24617000       0.00000000       0.31640422       0.84509661      -1.23929133
Se       3.20930000       1.87280000       1.42393000       0.00000000      -0.51482248      -0.05020090       0.42557394
Mo       1.57279000       2.44814000       3.36204000       0.00000000       0.87491000       1.04128594      -0.18218359
Se       3.06460000       4.02967000       4.61165000       0.00000000       1.23308424      -0.90080631       0.81335949
Se       1.45519000       4.74467000       2.06303000       0.00000000       0.34048817       0.37456356      -0.63692085
