12
Lattice="6.648307098338126 0.0 0.0 -3.4769023326810995 6.022171493249903 0.0 0.0 0.0 6.311373778793564" Properties=species:S:1:pos:R:3:magmoms:R:1:forces:R:3 timestep=20035 pbc="T T T" free_energy=-78.32268709598199 energy=-78.32195707886089 dipole="13.050426308727998 -44.77951456509363 3.4606409026486715" magmom=0.0 stress="-0.010374401734087588 -0.015868109177282364 -0.01294857538999508 -0.015868109177282364 -0.019460936038848537 -0.0010089352084214705 -0.01294857538999508 -0.0010089352084214705 -0.020042207653785598"
Mo       0.05012420       0.28165900       3.44858000       0.00000000      -1.49234139      -1.18866681      -0.52337028
Se       1.70718000       0.68656600       5.19470000       0.00000000      -0.27254816       0.28954430       0.34027158
Se      -0.01055560       2.04709000       1.65347000       0.00000000      -1.30201205      -0.86999554      -1.80076763
Mo      -1.88512000       2.38456000       3.26345000       0.00000000       0.72999955       0.99770743       0.76675147
Se      -0.18867900       3.94767000       4.61113000       0.00000000      -0.32038915      -0.60621520       0.64039209
Se      -1.92309000       4.63436000       1.84520000       0.00000000       0.10721839       1.16241182       0.66138243
Mo       3.24807000       0.17841000       3.31043000       0.00000000      -0.04035368      -0.64164857       0.56372439
Se       4.89857000       0.62710600       5.26263000       0.00000000       0.25786442       0.80006834      -1.32549384
Se       3.19009000       1.90559000       1.42632000       0.00000000      -0.27025086      -0.15436039       0.59331569
Mo       1.56003000       2.45621000       3.36985000       0.00000000       1.08866651       1.06751381      -0.14505751
Se       3.08675000       4.05277000       4.59120000       0.00000000       1.07527387      -1.21887303       0.93883384
Se       1.45090000       4.74320000       2.06766000       0.00000000       0.43941241       0.36240968      -0.70867666
