12
Lattice="6.650058100302821 0.0 0.0 -3.4732763869477443 6.0158911710141485 0.0 0.0 0.0 6.310313648488773" Properties=species:S:1:pos:R:3:magmoms:R:1:forces:R:3 timestep=20030 pbc="T T T" free_energy=-78.2231032725311 energy=-78.22238701830275 dipole="13.640605118193564 -45.144403568215495 3.495571744090779" magmom=0.0 stress="-0.009388339709216563 -0.015067474098487113 -0.012416256862237416 -0.015067474098487113 -0.023761446966418544 0.0006976166551673627 -0.012416256862237416 0.0006976166551673627 -0.019098175791834954"
Mo       0.05863320       0.29184200       3.45163000       0.00000000      -1.55896283      -1.28660987      -0.61270790
Se       1.71016000       0.68007600       5.19033000       0.00000000      -0.17733845       0.38380333       0.44933908
Se       0.00277178       2.02444000       1.63619000       0.00000000      -1.54451572      -0.69051091      -1.41553281
Mo      -1.88750000       2.35571000       3.29377000       0.00000000       0.77647367       1.37505307      -0.07723498
Se      -0.19652500       3.96748000       4.59214000       0.00000000      -0.23217882      -0.89900754       0.85303226
Se      -1.91115000       4.64010000       1.85138000       0.00000000       0.04503100       0.96828096       0.64667444
Mo       3.24360000       0.15816100       3.29675000       0.00000000      -0.09041123      -0.13922269       0.62596547
Se       4.90335000       0.62118700       5.27528000       0.00000000       0.20053866       0.73656755      -1.35172861
Se       3.17003000       1.93777000       1.43022000       0.00000000      -0.01520773      -0.26013959       0.76371268
Mo       1.54979000       2.46692000       3.37729000       0.00000000       1.17531742       0.97912662      -0.18861927
Se       3.11188000       4.07222000       4.57399000       0.00000000       0.88329626      -1.51057668       1.06684825
Se       1.44785000       4.74297000       2.06982000       0.00000000       0.53752650       0.34218091      -0.76146845
