12
Lattice="6.650058100302821 0.0 0.0 -3.4732763869477443 6.0158911710141485 0.0 0.0 0.0 6.310313648488773" Properties=species:S:1:pos:R:3:magmoms:R:1:forces:R:3 timestep=20030 pbc="T T T" free_energy=-78.2231032725311 energy=-78.22238701830275 dipole="13.640605118193564 -45.144403568215495 3.495571744090779" magmom=0.0 stress="-0.009388339709216563 -0.015067474098487113 -0.012416256862237416 -0.015067474098487113 -0.023761446966418544 0.0006976166551673627 -0.012416256862237416 0.0006976166551673627 -0.019098175791834954"
Mo       0.05863320       0.29184200       3.45163000       0.00000000      -1.55896283      -1.28660987      -0.61270790
Se       1.71016000       0.68007600       5.19033000       0.00000000      -0.17733845       0.38380333       0.44933908
Se       0.00277178       2.02444000       1.63619000       0.00000000      -1.54451572      -0.69051091      -1.41553281
Mo      -1.88750000       2.35571000       3.29377000       0.00000000       0.77647367       1.37505307      -0.07723498
Se      -0.19652500       3.96748000       4.59214000       0.00000000      -0.23217882      -0.89900754       0.85303226
Se      -1.91115000       4.64010000       1.85138000       0.00000000       0.04503100       0.96828096       0.64667444
Mo       3.24360000       0.15816100       3.29675000       0.00000000      -0.09041123      -0.13922269       0.62596547
Se       4.90335000       0.62118700       5.27528000       0.00000000       0.20053866       0.73656755      -1.35172861
Se       3.17003000       1.93777000       1.43022000       0.00000000      -0.01520773      -0.26013959       0.76371268
Mo       1.54979000       2.46692000       3.37729000       0.00000000       1.17531742       0.97912662      -0.18861927
Se       3.11188000       4.07222000       4.57399000       0.00000000       0.88329626      -1.51057668       1.06684825
Se       1.44785000       4.74297000       2.06982000       0.00000000       0.53752650       0.34218091      -0.76146845
12
Lattice="6.646413241865501 0.0 0.0 -3.480814254126612 6.028947139948852 0.0 0.0 0.0 6.312855525445542" Properties=species:S:1:pos:R:3:magmoms:R:1:forces:R:3 timestep=20040 pbc="T T T" free_energy=-78.38996362463925 energy=-78.38927004039417 dipole="12.46219870914951 -44.491446282503375 3.411842706756879" magmom=0.0 stress="-0.011223217508654558 -0.01611256711699899 -0.01262018292598213 -0.01611256711699899 -0.015177629021782909 -0.0025931451741123277 -0.01262018292598213 -0.0025931451741123277 -0.020794511781584573"
Mo       0.03762990       0.26812700       3.44410000       0.00000000      -1.33829562      -0.99955409      -0.42332830
Se       1.70335000       0.69376500       5.20035000       0.00000000      -0.38037711       0.20783853       0.18915160
Se      -0.02793350       2.06703000       1.66523000       0.00000000      -0.92702809      -1.03822219      -2.08562170
Mo      -1.88081000       2.41610000       3.23498000       0.00000000       0.61211230       0.57330174       1.58954165
Se      -0.18207800       3.92626000       4.63237000       0.00000000      -0.37386534      -0.34079588       0.43001602
Se      -1.93481000       4.63213000       1.84086000       0.00000000       0.15367858       1.35116097       0.64267786
Mo       3.25250000       0.19677700       3.32545000       0.00000000       0.00278907      -1.06206580       0.47295406
Se       4.89449000       0.63539000       5.24617000       0.00000000       0.31640422       0.84509661      -1.23929133
Se       3.20930000       1.87280000       1.42393000       0.00000000      -0.51482248      -0.05020090       0.42557394
Mo       1.57279000       2.44814000       3.36204000       0.00000000       0.87491000       1.04128594      -0.18218359
Se       3.06460000       4.02967000       4.61165000       0.00000000       1.23308424      -0.90080631       0.81335949
Se       1.45519000       4.74467000       2.06303000       0.00000000       0.34048817       0.37456356      -0.63692085
12
Lattice="6.648307098338126 0.0 0.0 -3.4769023326810995 6.022171493249903 0.0 0.0 0.0 6.311373778793564" Properties=species:S:1:pos:R:3:magmoms:R:1:forces:R:3 timestep=20035 pbc="T T T" free_energy=-78.32268709598199 energy=-78.32195707886089 dipole="13.050426308727998 -44.77951456509363 3.4606409026486715" magmom=0.0 stress="-0.010374401734087588 -0.015868109177282364 -0.01294857538999508 -0.015868109177282364 -0.019460936038848537 -0.0010089352084214705 -0.01294857538999508 -0.0010089352084214705 -0.020042207653785598"
Mo       0.05012420       0.28165900       3.44858000       0.00000000      -1.49234139      -1.18866681      -0.52337028
Se       1.70718000       0.68656600       5.19470000       0.00000000      -0.27254816       0.28954430       0.34027158
Se      -0.01055560       2.04709000       1.65347000       0.00000000      -1.30201205      -0.86999554      -1.80076763
Mo      -1.88512000       2.38456000       3.26345000       0.00000000       0.72999955       0.99770743       0.76675147
Se      -0.18867900       3.94767000       4.61113000       0.00000000      -0.32038915      -0.60621520       0.64039209
Se      -1.92309000       4.63436000       1.84520000       0.00000000       0.10721839       1.16241182       0.66138243
Mo       3.24807000       0.17841000       3.31043000       0.00000000      -0.04035368      -0.64164857       0.56372439
Se       4.89857000       0.62710600       5.26263000       0.00000000       0.25786442       0.80006834      -1.32549384
Se       3.19009000       1.90559000       1.42632000       0.00000000      -0.27025086      -0.15436039       0.59331569
Mo       1.56003000       2.45621000       3.36985000       0.00000000       1.08866651       1.06751381      -0.14505751
Se       3.08675000       4.05277000       4.59120000       0.00000000       1.07527387      -1.21887303       0.93883384
Se       1.45090000       4.74320000       2.06766000       0.00000000       0.43941241       0.36240968      -0.70867666
24
Lattice="6.574336738330112 0.0 0.0 -3.3447106147358725 5.793208721425381 0.0 0.0 0.0 13.58916206855556" Properties=species:S:1:pos:R:3:magmoms:R:1:forces:R:3 timestep=20020 pbc="T T T" free_energy=-156.24465595860102 energy=-156.24336053929795 dipole="43.50773082271756 -12.834198071374006 -3.82780018335123" magmom=0.0 stress="-0.025617454729308372 0.00663794833915526 0.014312685326151119 0.00663794833915526 -0.012576501546049994 0.007657164123562657 0.014312685326151119 0.007657164123562657 -0.012784264587464686"
Mo      -1.16971000       1.33092000       3.16219000       0.00000000      -0.28067214       0.35256655      -0.13489743
Se       0.74566100       2.49972000       4.91790000       0.00000000      -0.04174240      -0.18194889      -1.37143123
Se      -0.83741800       3.29136000       1.54895000       0.00000000      -0.64183447       0.27723543      -0.06605555
Mo      -2.45557000       4.17261000       3.28907000       0.00000000      -0.97312790      -0.00369187      -2.64127673
Se      -1.01369000       5.44665000       4.84362000       0.00000000       0.85740993       0.21999570       0.40036458
Se      -2.65714000       6.24185000       1.63064000       0.00000000       0.17608150       0.18988236       0.40430050
Mo       2.62470000       1.57164000       3.11823000       0.00000000      -0.21868315      -0.28187959       1.27694189
Se       4.13500000       2.49390000       4.96795000       0.00000000      -0.47271246      -1.13801685       1.30217186
Se       2.25571000       3.41194000       1.49591000       0.00000000       0.77752480       0.46067430       0.32508491
Mo       0.68146800       4.54089000       3.19093000       0.00000000       0.44784347       0.59330650       0.51658238
Se       2.46734000       5.35750000       4.91304000       0.00000000      -0.89363647      -0.01835751      -0.25796111
Se       0.44230300       6.33305000       1.26250000       0.00000000       1.28616068      -0.48056977       0.44652867
Mo       0.57693700      -1.56909000      10.21960000       0.00000000      -0.39779509       0.13768182      -1.45259099
Se       2.59062000      -0.75571100      11.52920000       0.00000000      -0.41169340       0.94956104       1.09610652
Se       1.03548000       0.20704100       8.28860000       0.00000000      -0.93098353       0.63526113       0.97276019
Mo      -0.49364400       1.38233000      10.11690000       0.00000000      -0.12456426      -0.60816919       0.00899228
Se       0.89194000       2.29825000      11.96000000       0.00000000      -0.58056184      -0.67886585       2.48274086
Se      -0.98825700       3.21443000       8.49492000       0.00000000       1.06946537      -0.22176089       0.30489187
Mo       4.36561000      -1.93936000      10.19490000       0.00000000      -0.46287728       1.81376089      -0.10892591
Se       5.80361000      -0.44434800      12.00870000       0.00000000      -0.31311070      -0.71639203      -0.94364465
Se       4.13307000       0.22301000       8.90308000       0.00000000       0.10781103       0.67985572      -1.15313315
Mo       2.19442000       1.41256000      10.15700000       0.00000000       1.20151367      -0.21931285      -1.73946535
Se       4.11548000       2.31526000      11.69450000       0.00000000       0.18170018      -0.63166722       0.47696029
Se       2.40177000       3.34567000       8.29631000       0.00000000       0.63706154      -1.12793547      -0.14317479
